# vtk DataFile Version 3.0
vtk generated by fshapesTk
ASCII
DATASET POLYDATA
POINTS 740 float
0.0998586 0.155207 0.214295
0.178515 0.181961 0.198919
0.280852 0.193538 0.225234
0.39184 0.191022 0.288816
0.499147 0.175335 0.384651
0.592569 0.147434 0.506974
0.663833 0.108398 0.649315
0.706542 0.0594628 0.804671
0.716175 0.00201659 0.965742
0.690075 -0.0624198 1.12521
0.0177584 0.216369 0.179364
0.159127 0.196144 0.218194
0.266837 0.176844 0.243198
0.345228 0.165774 0.271276
0.396931 0.168456 0.313834
0.423932 0.18902 0.378376
0.428195 0.230421 0.46944
0.412035 0.294571 0.589244
0.378343 0.382443 0.73817
0.330679 0.494157 0.915191
0.0742846 0.214469 0.195632
0.211177 0.237177 0.22762
0.327764 0.254862 0.283459
0.419733 0.262443 0.353638
0.483242 0.256057 0.429474
0.51529 0.232845 0.502796
0.513965 0.190845 0.565881
0.478592 0.128915 0.611523
0.409812 0.0466724 0.633164
0.309574 -0.0555649 0.625073
0.103695 0.26209 0.198146
0.244238 0.24008 0.180507
0.353896 0.22173 0.211118
0.435082 0.212954 0.281392
0.489073 0.218177 0.383132
0.516883 0.24066 0.508069
0.519773 0.282676 0.647767
0.499548 0.345625 0.793702
0.458723 0.430132 0.937452
0.400582 0.536121 1.07095
0.076427 0.182386 0.211831
0.16411 0.18365 0.200859
0.251056 0.208127 0.219883
0.337364 0.237449 0.271696
0.422414 0.257551 0.356859
0.50531 0.257454 0.474034
0.585175 0.228632 0.620288
0.661372 0.164665 0.791397
0.733644 0.0610127 0.982162
0.802214 -0.0851419 1.18674
0.0729773 0.184536 0.211903
0.204058 0.209288 0.193043
0.290255 0.224667 0.225944
0.348507 0.228053 0.299801
0.391178 0.217579 0.404713
0.427863 0.192021 0.531073
0.46638 0.150724 0.669381
0.513351 0.093533 0.810287
0.574546 0.0207373 0.944752
0.655079 -0.0669916 1.06428
0.0673688 0.199221 0.218732
0.19493 0.167962 0.207154
0.320383 0.164743 0.226655
0.429113 0.1804 0.279445
0.509349 0.207769 0.365637
0.551808 0.24095 0.483527
0.549561 0.274936 0.629869
0.497987 0.305444 0.800161
0.394732 0.328823 0.988952
0.239624 0.342022 1.19017
0.0864196 0.194566 0.210004
0.227167 0.222571 0.221165
0.327956 0.231874 0.232941
0.398154 0.225752 0.261994
0.444307 0.206838 0.319561
0.471509 0.177458 0.412829
0.484176 0.139784 0.54576
0.486497 0.0958961 0.719677
0.482697 0.0478033 0.933735
0.477164 -0.00257109 1.18536
0.0843807 0.183044 0.183517
0.223302 0.190923 0.221
0.336108 0.214349 0.271857
0.422149 0.238144 0.332475
0.480395 0.250831 0.398688
0.510064 0.243577 0.465899
0.511011 0.209618 0.52924
0.483943 0.143932 0.58376
0.430544 0.0430143 0.624633
0.353499 -0.0952782 0.647377
0.043664 0.208578 0.189518
0.129127 0.230059 0.176609
0.218593 0.248762 0.198418
0.309433 0.258301 0.254873
0.398887 0.25388 0.344336
0.484332 0.231954 0.463737
0.563503 0.190032 0.608757
0.634664 0.126557 0.774076
0.69674 0.0408109 0.953655
0.749401 -0.0671724 1.14104
0.0559246 0.204306 0.184491
0.196887 0.235196 0.168172
0.298406 0.238954 0.196338
0.369363 0.224245 0.262763
0.415937 0.197784 0.361078
0.442944 0.165083 0.484471
0.454586 0.130819 0.625654
0.454891 0.0990211 0.776992
0.447968 0.0731668 0.930714
0.438131 0.0562227 1.07917
0.0590832 0.183311 0.183179
0.198846 0.154707 0.163847
0.297643 0.14655 0.200567
0.365998 0.154444 0.279526
0.411332 0.174921 0.388395
0.439426 0.205004 0.515579
0.455243 0.242004 0.649985
0.463413 0.283418 0.781046
0.468511 0.326893 0.898882
0.475197 0.370225 0.994521
0.0440361 0.152729 0.211804
0.182644 0.125048 0.211012
0.279398 0.115169 0.273956
0.345923 0.12035 0.373395
0.390538 0.138421 0.486979
0.419748 0.167441 0.595578
0.439058 0.205526 0.682525
0.453459 0.250776 0.733323
0.467697 0.301244 0.735577
0.486421 0.354951 0.679046
0.0690432 0.216397 0.201578
0.148163 0.244786 0.184292
0.249453 0.253364 0.226555
0.358843 0.246109 0.310961
0.464765 0.226194 0.422535
0.557635 0.196368 0.547705
0.629663 0.159138 0.67391
0.67481 0.116845 0.789516
0.688787 0.0716834 0.88391
0.669049 0.025705 0.94767
0.0771446 0.228642 0.206404
0.199656 0.201729 0.187802
0.27791 0.212314 0.220155
0.331797 0.241899 0.293201
0.375858 0.276595 0.397424
0.421285 0.305527 0.523501
0.477027 0.319974 0.662153
0.550451 0.312871 0.804207
0.647733 0.278506 0.940773
0.774106 0.212329 1.06348
0.0365838 0.178618 0.181172
0.120903 0.20065 0.208535
0.212443 0.219004 0.266149
0.306584 0.22778 0.341495
0.398994 0.222535 0.423446
0.485787 0.199996 0.501825
0.563697 0.157899 0.567285
0.630225 0.0948851 0.611369
0.683759 0.0104194 0.626646
0.723645 -0.0952881 0.606875
0.05928 0.221443 0.17457
0.139463 0.25292 0.215777
0.249448 0.2521 0.259686
0.368878 0.231361 0.309414
0.481368 0.200292 0.365959
0.57357 0.166682 0.428803
0.63477 0.137006 0.496318
0.656729 0.116676 0.566094
0.633604 0.110174 0.63523
0.56189 0.12112 0.7006
0.0707047 0.206278 0.199917
0.210417 0.180901 0.238368
0.321288 0.166748 0.28819
0.4046 0.165233 0.346666
0.460636 0.177344 0.410622
0.489536 0.203633 0.476448
0.491821 0.244217 0.540154
0.468712 0.298801 0.597476
0.422309 0.366709 0.644017
0.355669 0.446928 0.675416
0.0566643 0.194561 0.163385
0.143035 0.168166 0.144128
0.231053 0.155836 0.17817
0.319526 0.157222 0.253686
0.406822 0.171946 0.359986
0.491221 0.19946 0.486835
0.571168 0.238996 0.624241
0.64547 0.289548 0.762471
0.71343 0.349894 0.892211
0.77494 0.418625 1.00478
0.0681368 0.25523 0.191429
0.164428 0.276824 0.210917
0.247533 0.259123 0.221443
0.323763 0.223817 0.243746
0.397247 0.187583 0.292203
0.470842 0.16365 0.376528
0.546678 0.162599 0.502761
0.626504 0.192788 0.673937
0.711918 0.260605 0.890608
0.804511 0.370631 1.1513
0.0694981 0.23616 0.190057
0.205918 0.262466 0.222165
0.323264 0.250794 0.238554
0.416512 0.219971 0.26007
0.48121 0.18447 0.301317
0.513841 0.155828 0.372372
0.512073 0.14337 0.479761
0.474922 0.154596 0.627107
0.402832 0.195408 0.815624
0.297679 0.270238 1.04454
0.0687696 0.203142 0.219372
0.21029 0.23429 0.208303
0.318062 0.23768 0.227348
0.396332 0.222319 0.279293
0.447766 0.195227 0.364639
0.474457 0.16218 0.481969
0.478513 0.128084 0.628271
0.462398 0.0971579 0.799255
0.429117 0.0730239 0.989688
0.382305 0.0587441 1.19373
0.051599 0.195641 0.230635
0.154504 0.167454 0.213147
0.235752 0.158553 0.243453
0.305596 0.165261 0.313268
0.371154 0.184668 0.414608
0.437649 0.214245 0.539371
0.509122 0.251665 0.679251
0.588876 0.294721 0.825829
0.679767 0.341294 0.970779
0.784375 0.389359 1.10611
0.0775184 0.23487 0.165803
0.157221 0.203287 0.203902
0.257572 0.201832 0.253565
0.365387 0.219822 0.312345
0.469845 0.248976 0.376945
0.561986 0.282546 0.443439
0.634538 0.314881 0.50749
0.681858 0.341199 0.56458
0.699933 0.357482 0.610237
0.686367 0.360412 0.640271
0.0816469 0.196723 0.236854
0.170825 0.216029 0.268051
0.256785 0.195482 0.324178
0.340929 0.158197 0.395291
0.423655 0.121836 0.472275
0.504884 0.100306 0.546547
0.584407 0.104647 0.610027
0.662119 0.14352 0.655224
0.738179 0.223505 0.675397
0.813111 0.349292 0.664739
0.0746916 0.199317 0.173065
0.21052 0.230875 0.157032
0.302599 0.232814 0.184621
0.365128 0.215424 0.25018
0.40837 0.186691 0.347744
0.440309 0.153142 0.4708
0.467567 0.120271 0.612309
0.495943 0.0927526 0.764848
0.530726 0.074551 0.920844
0.576868 0.0689692 1.07285
0.0523258 0.183819 0.194787
0.139226 0.203856 0.182258
0.259599 0.184224 0.203284
0.387505 0.14752 0.258566
0.50242 0.111112 0.347021
0.58789 0.0887507 0.465994
0.630904 0.0913965 0.611492
0.621598 0.127664 0.778462
0.553075 0.204085 0.96109
0.421272 0.32528 1.15312
0.0709002 0.218316 0.220264
0.209112 0.192073 0.264144
0.323086 0.20385 0.302961
0.411066 0.234628 0.344696
0.471102 0.269939 0.394142
0.501647 0.298358 0.453812
0.501927 0.310701 0.524496
0.472171 0.299585 0.605656
0.413736 0.259161 0.69576
0.329131 0.184952 0.792579
0.00397384 0.251433 0.182607
-0.0155352 0.293221 0.167729
-0.0269694 0.342224 0.164759
-0.0357282 0.396566 0.170424
-0.0458146 0.454562 0.182169
-0.0603084 0.514608 0.197868
-0.0816105 0.575154 0.215675
-0.111576 0.634694 0.233956
-0.151587 0.69178 0.251257
-0.202598 0.745049 0.26629
-0.00616921 0.299517 0.199187
0.00431973 0.367447 0.186051
-0.0107486 0.429268 0.179721
-0.0427786 0.482982 0.180186
-0.0849604 0.526918 0.187368
-0.131647 0.559739 0.201072
-0.178044 0.580444 0.220963
-0.220054 0.588363 0.246577
-0.254196 0.583145 0.277328
-0.277562 0.564752 0.312532
0.00909553 0.263768 0.218928
0.0168456 0.304246 0.233591
0.0146219 0.355774 0.237015
0.000112515 0.414024 0.232029
-0.0282307 0.475449 0.22086
-0.0713205 0.536996 0.20539
-0.129512 0.595975 0.187281
-0.202662 0.650003 0.168027
-0.290178 0.696981 0.148986
-0.391068 0.735094 0.131378
0.00675808 0.274771 0.173517
0.00798903 0.317667 0.188748
0.0083702 0.364652 0.191032
0.00114461 0.415791 0.184311
-0.0186554 0.470922 0.171641
-0.0546694 0.529667 0.155537
-0.109457 0.591442 0.138151
-0.184647 0.655481 0.121356
-0.28104 0.720855 0.106792
-0.398688 0.786509 0.0958835
0.0110187 0.258166 0.225439
0.00567289 0.328143 0.239629
-0.0174478 0.379212 0.243929
-0.0494318 0.418443 0.240324
-0.0833299 0.451083 0.230382
-0.113549 0.481198 0.215467
-0.135537 0.512008 0.196824
-0.145605 0.546073 0.175632
-0.140826 0.585403 0.153015
-0.11896 0.631524 0.130041
0.00154342 0.270926 0.186799
-0.0108083 0.334474 0.171364
-0.0322218 0.399409 0.172814
-0.0576995 0.459705 0.184272
-0.0833181 0.510583 0.20042
-0.105928 0.548239 0.216957
-0.122994 0.569689 0.230335
-0.132499 0.572697 0.23761
-0.132886 0.555714 0.236374
-0.123006 0.517843 0.22471
0.0124615 0.254009 0.229732
-0.00348828 0.296958 0.242392
-0.022597 0.358143 0.249526
-0.0429591 0.426709 0.250375
-0.0630743 0.494182 0.244398
-0.0817356 0.553685 0.231282
-0.0979576 0.599531 0.21094
-0.110925 0.627006 0.183509
-0.119953 0.632246 0.149331
-0.124456 0.612168 0.108934
0.0295507 0.310876 0.179081
0.0408321 0.353054 0.194805
0.0326209 0.401342 0.196145
0.00852766 0.454552 0.187956
-0.0284467 0.511537 0.173994
-0.075623 0.571128 0.157326
-0.130509 0.632115 0.140532
-0.19074 0.69325 0.125811
-0.254063 0.753263 0.11504
-0.318339 0.810891 0.109791
-0.00117414 0.244133 0.216134
-0.0182645 0.286884 0.226424
-0.0350791 0.334166 0.235998
[...]
POINT_DATA 740
SCALARS signal FLOAT
LOOKUP_TABLE default
0
0.111111
0.222222
0.333333
0.444444
0.555556
0.666667
0.777778
0.888889
1
0
0.111111
0.222222
0.333333
0.444444
0.555556
0.666667
0.777778
0.888889
1
0
0.111111
0.222222
0.333333
0.444444
0.555556
0.666667
0.777778
0.888889
1
0
0.111111
0.222222
0.333333
0.444444
0.555556
0.666667
0.777778
0.888889
1
0
0.111111
0.222222
0.333333
0.444444
0.555556
0.666667
0.777778
0.888889
1
0
0.111111
0.222222
0.333333
0.444444
0.555556
0.666667
0.777778
0.888889
1
0
0.111111
0.222222
0.333333
0.444444
0.555556
0.666667
0.777778
0.888889
1
0
0.111111
0.222222
0.333333
0.444444
0.555556
0.666667
0.777778
0.888889
1
0
0.111111
0.222222
0.333333
0.444444
0.555556
0.666667
0.777778
0.888889
1
0
0.111111
0.222222
0.333333
0.444444
0.555556
0.666667
0.777778
0.888889
1
0
0.111111
0.222222
0.333333
0.444444
0.555556
0.666667
0.777778
0.888889
1
0
0.111111
0.222222
0.333333
0.444444
0.555556
0.666667
0.777778
0.888889
1
0
0.111111
0.222222
0.333333
0.444444
0.555556
0.666667
0.777778
0.888889
1
0
0.111111
0.222222
0.333333
0.444444
0.555556
0.666667
0.777778
0.888889
1
0
0.111111
0.222222
0.333333
0.444444
0.555556
0.666667
0.777778
0.888889
1
0
0.111111
0.222222
0.333333
0.444444
0.555556
0.666667
0.777778
0.888889
1
0
0.111111
0.222222
0.333333
0.444444
0.555556
0.666667
0.777778
0.888889
1
0
0.111111
0.222222
0.333333
0.444444
0.555556
0.666667
0.777778
0.888889
1
0
0.111111
0.222222
0.333333
0.444444
0.555556
0.666667
0.777778
0.888889
1
0
0.111111
0.222222
0.333333
0.444444
0.555556
0.666667
0.777778
0.888889
1
0
0.111111
0.222222
0.333333
0.444444
0.555556
0.666667
0.777778
0.888889
1
0
0.111111
0.222222
0.333333
0.444444
0.555556
0.666667
0.777778
0.888889
1
0
0.111111
0.222222
0.333333
0.444444
0.555556
0.666667
0.777778
0.888889
1
0
0.111111
0.222222
0.333333
0.444444
0.555556
0.666667
0.777778
0.888889
1
0
0.111111
0.222222
0.333333
0.444444
0.555556
0.666667
0.777778
0.888889
1
0
0.111111
0.222222
0.333333
0.444444
0.555556
0.666667
0.777778
0.888889
1
0
0.111111
0.222222
0.333333
0.444444
0.555556
0.666667
0.777778
0.888889
1
0
0.111111
0.222222
0.333333
0.444444
0.555556
0.666667
0.777778
0.888889
1
0
0.111111
0.222222
0.333333
0.444444
0.555556
0.666667
0.777778
0.888889
1
0
0.111111
0.222222
0.333333
0.444444
0.555556
0.666667
0.777778
0.888889
1
0
0.111111
0.222222
0.333333
0.444444
0.555556
0.666667
0.777778
0.888889
1
0
0.111111
0.222222
0.333333
0.444444
0.555556
0.666667
0.777778
0.888889
1
0
0.111111
0.222222
0.333333
0.444444
0.555556
0.666667
0.777778
0.888889
1
0
0.111111
0.222222
0.333333
0.444444
0.555556
0.666667
0.777778
0.888889
1
0
0.111111
0.222222
0.333333
0.444444
0.555556
0.666667
0.777778
0.888889
1
0
0.111111
0.222222
0.333333
0.444444
0.555556
0.666667
0.777778
0.888889
1
0
0.111111
0.222222
0.333333
0.444444
0.555556
0.666667
0.777778
0.888889
1
0
0.111111
0.222222
0.333333
0.444444
0.555556
0.666667
0.777778
0.888889
1
0
0.111111
0.222222
0.333333
0.444444
0.555556
0.666667
0.777778
0.888889
1
0
0.111111
0.222222
0.333333
0.444444
0.555556
0.666667
0.777778
0.888889
1
0
0.111111
0.222222
0.333333
0.444444
0.555556
0.666667
0.777778
0.888889
1
0
0.111111
0.222222
0.333333
0.444444
0.555556
0.666667
0.777778
0.888889
1
0
0.111111
0.222222
0.333333
0.444444
0.555556
0.666667
0.777778
0.888889
1
0
0.111111
0.222222
0.333333
0.444444
0.555556
0.666667
0.777778
0.888889
1
0
0.111111
0.222222
0.333333
0.444444
0.555556
0.666667
0.777778
0.888889
1
0
0.111111
0.222222
0.333333
0.444444
0.555556
0.666667
0.777778
0.888889
1
0
0.111111
0.222222
0.333333
0.444444
0.555556
0.666667
0.777778
0.888889
1
0
0.111111
0.222222
0.333333
0.444444
0.555556
0.666667
0.777778
0.888889
1
0
0.111111
0.222222
0.333333
0.444444
0.555556
0.666667
0.777778
0.888889
1
0
0.111111
0.222222
0.333333
0.444444
0.555556
0.666667
0.777778
0.888889
1
0
0.111111
0.222222
0.333333
0.444444
0.555556
0.666667
0.777778
0.888889
1
0
0.111111
0.222222
0.333333
0.444444
0.555556
0.666667
0.777778
0.888889
1
0
0.111111
0.222222
0.333333
0.444444
0.555556
0.666667
0.777778
0.888889
1
0
0.111111
0.222222
0.333333
0.444444
0.555556
0.666667
0.777778
0.888889
1
0
0.111111
0.222222
0.333333
0.444444
0.555556
0.666667
0.777778
0.888889
1
0
0.111111
0.222222
0.333333
0.444444
0.555556
0.666667
0.777778
0.888889
1
0
0.111111
0.222222
0.333333
0.444444
0.555556
0.666667
0.777778
0.888889
1
0
0.111111
0.222222
0.333333
0.444444
0.555556
0.666667
0.777778
0.888889
1
0
0.111111
0.222222
0.333333
0.444444
0.555556
0.666667
0.777778
0.888889
1
0
0.111111
0.222222
0.333333
0.444444
0.555556
0.666667
0.777778
0.888889
1
0
0.111111
0.222222
0.333333
0.444444
0.555556
0.666667
0.777778
0.888889
1
0
0.111111
0.222222
0.333333
0.444444
0.555556
0.666667
0.777778
0.888889
1
0
0.111111
0.222222
0.333333
0.444444
0.555556
0.666667
0.777778
0.888889
1
0
0.111111
0.222222
0.333333
0.444444
0.555556
0.666667
0.777778
0.888889
1
0
0.111111
0.222222
0.333333
0.444444
0.555556
0.666667
0.777778
0.888889
1
0
0.111111
0.222222
0.333333
0.444444
0.555556
0.666667
0.777778
0.888889
1
0
0.111111
0.222222
0.333333
0.444444
0.555556
0.666667
0.777778
0.888889
1
0
0.111111
0.222222
0.333333
0.444444
0.555556
0.666667
0.777778
0.888889
1
0
0.111111
0.222222
0.333333
0.444444
0.555556
0.666667
0.777778
0.888889
1
0
0.111111
0.222222
0.333333
0.444444
0.555556
0.666667
0.777778
0.888889
1
0
0.111111
0.222222
0.333333
0.444444
0.555556
0.666667
0.777778
0.888889
1
0
0.111111
0.222222
0.333333
0.444444
0.555556
0.666667
0.777778
0.888889
1
0
0.111111
0.222222
0.333333
0.444444
0.555556
0.666667
0.777778
0.888889
1
0
0.111111
0.222222
0.333333
0.444444
0.555556
0.666667
0.777778
0.888889
1
